% Model:              Luke_electric_field_simulation_V2.mph
% Version:            COMSOL 5.6.0.401
% Date:               Mar 11 2024, 22:31
% Dimension:          3
% Nodes:              5305
% Expressions:        1
% Description:        Multislice
% x                       y                        z                        Color
-30.93346630924262        -25.359236309169646      0                        -3758.6844148986156
-31.99334850103751        -24.00880776727139       0                        -4289.3813131462275
-30.346312421352653       -23.77977512433597       0                        2.7284841053187847E-12
-24.484394834745025       -29.81879280487247       0                        -5.4569682106375694E-12
-24.707064474382953       -31.45705995480944       0                        -3997.5458046385475
-26.07208295339521        -30.334770315782116      0                        -3431.9631509685846
-28.62493992071895        -27.938007785640735      0                        -3443.48551261356
-26.980868585906894       -27.54790109556709       0                        4.092726157978177E-12
-27.378446257062063       -29.16068612473802       0                        -3432.2564212182906
-25.77284438159127        -28.708106056607676      0                        -5.153803310046594E-12
-29.810256111195265       -26.669950666761622      0                        -3815.289120727619
-28.16424865089273        -26.30103473939629       0                        -6.063298011819521E-13
-29.309132486074216       -25.00716514780424       0                        7.275957614183426E-12
-23.28352545861062        -32.525020679129554      0                        -2495.263789314573
-23.147551167782076       -30.871732479918737      0                        -3.031649005909761E-12
-21.768740257016997       -31.835234480982397      0                        -1.2126596023639042E-12
-21.802890575642977       -33.53520126370913       0                        -3078.01411560554
-32.988706595346315       -22.621613175325745      0                        -5058.964056358009
-31.356008623917415       -22.48519164785493       0                        2.9558577807620168E-12
-32.2800394416344         -21.135936177279977      0                        4.547473508864641E-13
-33.91939236503288        -21.199919042780934      0                        -5022.084837162517
-33.14850743604835        -19.75197538967592       0                        7.389644451905042E-13
-34.785133110741185       -19.746559576033434      0                        -4603.310390305173
-34.49505686666204        -22.657605096682598      1.1102230246251565E-16   -3617.3795631812095
-32.515567287472585       -25.48420023939679       5.551115123125783E-17    -3131.494723705128
-32.93138906278236        -24.418504435440795      -5.551115123125783E-17   -3338.2336962038703
-25.989774329701596       -31.59160028087777       0                        -2664.40484248338
-31.301686141409643       -26.70052144032726       5.551115123125783E-17    -3458.598935170182
-23.529474881825045       -33.65527573008264       5.551115123125783E-17    -2644.6815049729726
-24.731698403142712       -33.01234935986305       5.551115123125783E-17    -2572.9968970383584
-20.26760280133245        -34.48428074794618       0                        -2590.8728537583506
-21.910332378127244       -35.191304566856466      5.551115123125783E-17    -2284.8700004518437
-27.379781112754433       -30.518607067045515      0                        -2928.5237554121395
-29.104245429166305       -29.62659099117056       0                        -2641.739669842256
-30.838659546421876       -28.581844380478174      -5.551115123125783E-17   -2601.414388532946
-18.681811220104294       -35.368214386591674      0                        -2386.0254610499237
-19.944664617037855       -36.10925809216338       -5.551115123125783E-17   -1959.9808097482849
-20.265138417989824       -32.748844405601844      0                        -4.244308608273665E-12
-17.04838756522753        -36.18394443586823       0                        -2721.5043697163283
-15.371531364354382       -36.92789327680431       0                        -2514.10897820809
-16.394116361712367       -37.58878232125849       0                        -1611.085168838128
-15.144449681897385       -38.279097798361434      1.734723475976807E-18    -2295.529313571587
-15.161682419601846       -38.280309345184         0                        -2168.9639966985746
-18.22549226762962        -36.624878168884116      7.979727989493313E-17    -2634.641625732498
-17.19974809411297        -34.47113989973546       0                        3.0316490059097606E-13
-18.75001441244057        -33.64674054851375       0                        -1.8189894035458565E-12
-15.60633463906381        -35.22419433296366       0                        -4.244308608273665E-12
-13.662792866778702       -37.59409254922828       0                        -2033.554476423659
-15.135314267584121       -38.29115684418505       -1.734723475976807E-18   -2068.4590855295005
-13.968111306638884       -35.91321966246646       0                        -3.941143707682689E-12
-33.97282504253889        -18.322443750616465      0                        1.2126596023639042E-12
-35.585397204386915       -18.26468660950518       0                        -4831.809785847415
-36.31985253139655        -16.757003325643648      0                        -5185.962643156994
-36.98809187300678        -15.22620672222359       0                        -6168.366392669908
-35.38566289833092        -15.43546654175437       0                        4.850638409455617E-12
-34.7165151586522         -16.895747813240604      0                        1.1368683772161603E-12
-37.589578617413366       -13.675199328917476      0                        -6376.027602031857
-35.9902015598724         -13.949681403391265      0                        4.547473508864641E-13
-38.123917342995966       -12.106452657225434      0                        -5842.556244699187
-36.549103541807206       -12.43568284962403       0                        -2.576901655023297E-12
-38.59097907335933        -10.522090292015337      0                        -6085.836547042886
-37.04947410076605        -10.912376694674688      0                        9.094947017729282E-13
-37.60657838577566        -16.343557840341454      0                        -5994.255985509222
-37.61000029986943        -16.357376202534443      0                        -5641.497368150047
-38.26818159099954        -15.163667680127384      8.326672684688674E-17    -4853.486713898581
-38.66159873578874        -13.26947849925957       -1.4432899320127033E-15  -6290.1908273154895
-37.61759296227891        -16.341300345845948      0                        -5737.076788949073
-35.59307829043532        -20.823578858070764      0                        -4236.656853762426
-36.788424605162          -19.258333563958843      0                        -3872.5713715994125
-39.924503175924414       -2.4499105708195645      0                        -7155.243997230367
-38.50879943141945        -3.139346797134588       0                        -6.063298011819522E-12
-39.79081455675801        -4.077803708060315       0                        -7457.568561493201
-39.590583055888914       -5.701371338038868       0                        -6915.572753823539
-38.34629549373628        -4.71116568242513        0                        -9.094947017729282E-12
-10.17198674839061        -38.68463007472228       0                        -1618.5425227619753
-8.421896449160391        -39.102503767791205      0                        -1529.4690447031712
-9.623305233218604        -39.941482130843966      -5.551115123125783E-17   -1261.3426344369325
-11.92700641600847        -38.18042282823002       0                        -1808.8552419987332
-13.782045738957892       -39.190129147441226      -5.551115123125783E-17   -1430.4289425621057
-6.683475160713938        -39.436599122675645      0                        -756.0837944799769
-7.263298331887761        -37.942988867029044      0                        1.5158245029548805E-12
-12.349387446899227       -36.52068453399582       0                        -3.031649005909761E-12
-8.970033515234562        -37.540259839192565      0                        9.094947017729282E-13
-10.691716101886708       -37.05979033770927       0                        6.063298011819521E-13
-11.811277571712306       -40.0523180271322        -1.6653345369377348E-16  -1136.304254749191
-7.525592725750779        -40.75564400912317       5.551115123125783E-17    -585.3858930533903
-38.99088981842006        -8.925056095786372       0                        -6491.062439908517
-37.462770367008986       -9.389732683739473       0                        -4.244308608273665E-12
-39.323928534248495       -7.3179155827472195      0                        -5894.689974135886
-38.11333027000343        -6.289707001356753       0                        5.153803310046594E-12
-37.82714925751121        -7.841783687581082       0                        -8.185452315956354E-12
-40.00305588100167        -10.250479959715914      0                        -5339.803102213129
-37.62077280647244        -17.645664980267004      -5.551115123125783E-17   -4062.67079455309
-39.61259819056461        -12.102944430148415      -1.1102230246251565E-16  -4734.637150042523
-39.99155867814184        -0.8188024221550997      0                        -7067.196818002123
-38.601316695205355       -1.5789653949144598      0                        -6.063298011819522E-12
-39.99166354131431        0.8136987625892353       0                        -6438.190767399991
-38.62903198905487        0.0031043399030115104    0                        6.6696278130014735E-12
-40.42986090111844        -7.389127075773402       0                        -5434.965062955836
-40.81652843280336        -5.29712987903496        0                        -6023.9380096443965
-40.8602225938756         -1.7489379997131291      -5.551115123125783E-17   -6353.400343904204
-41.10280702045799        -2.6088736550658442      0                        -6350.354906994988
-40.94555064160671        -2.89046662275118        -1.1102230246251565E-16  -6152.099952964768
-39.924816769077424       2.444815494947507        0                        -7632.683434242316
-38.59938000344652        1.6040934759623915       0                        8.48861721654733E-12
-38.5094043606026         3.148182513864137        0                        2.4253192047278085E-12
-39.79133633192748        4.072719084400571        0                        -7347.0566290009465
-41.21397775290043        1.493668873749829        1.6653345369377348E-16   -5886.048372360198
-3.2851891365190378       -39.8641780334566        0                        -1070.6965419594746
-3.2532252711611833       -40.78072131578761       0                        -34.24627774766208
-3.6275655206981376       -40.82713550636498       0                        -50.250261032455995
-1.6367336987470584       -39.96623690933252       0                        -303.7611964357814
-4.966330745296638        -39.68947783711906       0                        -651.6926165631471
-3.998202052940574        -38.49918363082008       0                        2.7095362990318486E-12
-4.36154395664604         -40.37742312010731       5.551115123125783E-17    -230.37333520456653
-3.1790372974106322       -40.96891851550132       0                        320.6674712290029
-5.985298496251722        -40.55128331374087       -5.551115123125783E-17   -594.7650614589506
-5.567726337229416        -38.262349563042214      0                        6.063298011819521E-13
0                         -40                      0                        11196.406415968959
-1.1391373975478931       -41.52303958762857       0                        1733.1458654953415
-1.0204042798698296       -38.86472304675529       0                        5.820766091346741E-12
-40.962909813571954       -8.486254101912658       0                        -4730.196673958541
-41.34451782000086        -1.5557146104708992      0                        -6091.593067754064
-41.88282524300636        0.2796707977941839       0                        -5212.1016857097
-39.59131271131196        5.69630437856644         0                        -6874.119513235194
-38.35023862240349        4.717725579928427        0                        -8.48861721654733E-12
-39.324865684305564       7.312874865948797        0                        -6263.370808769718
-38.10750611078392        6.278769884223083        0                        -8.48861721654733E-12
-38.99205373013243        8.919964463804943        0                        -6366.854415131921
-37.81783435031119        7.842439501383098        0                        5.4569682106375694E-12
-40.63939806624546        5.276540601864726        -5.551115123125783E-17   -5753.415979948291
-40.615674278468475       3.297607978818483        -1.6653345369377348E-16  -6123.581371477898
-38.592521853832054       10.516425139633881       0                        -6476.548536565695
-38.126078410801355       12.099643971165662       0                        -5723.702729495743
-37.032255035722805       10.9184659552861         0                        0
-37.4591338815931         9.386983512423887        0                        7.579122514774403E-12
-37.59266562293857        13.666716136654133       0                        -5836.615482651554
-36.54628557788941        12.452099304652542       0                        1.0762353970979651E-11
-2.4503564167095          -38.520222247011944      0                        5.960438491976155E-12
-39.68391962658899        10.130498744915819       -2.220446049250313E-16   -5177.4508794129815
-40.83919273698241        6.650783215187462        -2.7755575615628914E-17  -5459.39379039887
-40.68851716277895        8.839403444104168        0                        -4899.559106948417
-39.08976310491052        13.353625900905595       5.551115123125783E-17    -4689.896882679523
-39.97982956504438        11.966683498911255       5.551115123125783E-17    -4278.645207542526
-36.32541575606962        16.744944865034338       0                        -5044.810195573065
-35.592459695212          18.25091968371291        0                        -5252.913675001672
-34.69765468985443        16.921989880520773       0                        1.0610771520684163E-12
-35.38494016258909        15.435565242743362       0                        -4.850638409455617E-12
-36.99233027044143        15.215913694799383       0                        -5745.8884777076255
-35.99861738188328        13.936561488611261       0                        4.092726157978177E-12
-38.27338706945803        14.978499655102773       2.7755575615628914E-16   -4881.690445779415
-33.928225591350426       21.185771729666925       0                        -5725.374612370369
-33.16934451456365        19.761167734483646       0                        -3.069544618483633E-12
-34.79347424209683        19.731852953476757       0                        -5321.295903378386
-33.97628506453776        18.350601556044335       0                        6.063298011819521E-13
-37.18934662404414        18.07314151399386        5.551115123125783E-17    -4001.5273104940075
-36.31628032381542        19.300920810173945       0                        -4077.0771080318405
-38.14387021687041        16.85737073029607        0                        -3887.526642212455
-35.09298673039143        20.775101609894538       -1.1102230246251565E-16  -3814.1442708967097
-32.99705471960502        22.609430045591665       0                        -4453.8253571445
-32.286870961844485       21.15989753514655        0                        5.9117155615240335E-12
-32.00054143934682        23.999221880274803       0                        -4435.531514336362
-31.350996633719973       22.521282997768058       0                        -9.852859269206722E-13
-34.46154266452387        22.09120559198072        1.6653345369377348E-16   -3731.7307780835426
-30.939892627142704       25.351399332904258       0                        -4306.97219536851
-30.374909313997094       23.832080583850225       0                        -1.5158245029548805E-12
-33.4431245953777         24.287346223269246       -1.1102230246251565E-16  -3319.3410388866832
-29.816454266461612       26.663023883849032       0                        -3918.0296174615837
-29.304250414432325       25.125740058513355       0                        0
-28.63141890338507        27.93136862940848        0                        -3878.0779355038403
-28.188950608785763       26.36720483415243        0                        3.789561257387201E-12
-32.153285734024934       25.550095830254342       0                        -3351.3915553709003
-27.385247946559296       29.154297050262155       0                        -4110.8196548575925
-27.021529035175988       27.56101719972851        0                        -6.063298011819521E-13
-31.226981363564157       27.035648552947897       0                        -2966.855482858226
-30.610007428609013       27.784238000697044       5.551115123125783E-17    -3404.170763167856
-29.86177059270428        27.986330360512895       5.551115123125783E-17    -3563.5328028919125
-28.67608460444781        29.378368329217317       0                        -3291.7759174137086
-29.96271279764022        28.518046440567126       -5.551115123125783E-17   -3171.6989804809045
-28.947117684385773       29.434393157809208       0                        -3302.504440206309
-28.761812692316575       29.531692901894708       2.7755575615628914E-17   -3092.896082350594
-26.079199929353734       30.328649008935905       0                        -3471.1731068055956
-25.798862483298027       28.697938267625982       0                        5.4569682106375694E-12
-27.559586122527257       30.887847763707857       5.551115123125783E-17    -2475.020843692429
-24.71465916778548        31.451090881091826       0                        -3204.8436674905624
-24.49042976375446        29.78429467660734        0                        4.850638409455617E-12
-23.2927295882434         32.51843050332875        0                        -3377.3061417226677
-23.13089688071476        30.874103579417685       0                        2.7284841053187847E-12
-21.81509846413589        33.5272652675784         0                        -3023.6550859040844
-20.284000872975433       34.47464246116833        0                        -2744.330899367463
-20.25513899326304        32.8347952287162         0                        8.48861721654733E-12
-21.74339664689532        31.86067277325037        0                        -1.8189894035458565E-12
-26.457503087451535       32.20045058988785        0                        -2382.195464532386
-24.605117958630274       32.96201382182086        -1.1102230246251565E-16  -2476.5098727742347
-23.018242653203615       34.199025845725565       -8.326672684688674E-17   -2446.1116319459275
-18.70155510429393        35.35777999493542        0                        -2954.806856877737
-18.750751471244726       33.75986385269882        0                        -2.4253192047278085E-12
-17.07015131640369        36.173679034434656       0                        -2669.3498960802212
-17.133159966022944       34.445803979865964       0                        9.094947017729282E-13
-18.087408378932572       36.69666260849132        -5.551115123125783E-17   -2343.8794354306838
-19.98409719825406        35.73573717559056        2.7755575615628914E-17   -2392.161900968437
-15.582399341176952       35.21247532294036        0                        3.3348139065007367E-12
-15.393976024901065       36.918536201746605       0                        -3601.513835071646
-21.547977117252053       35.46093857379596        -1.1102230246251565E-16  -2035.8192605539655
-18.822181932312823       37.01515291778268        0                        -2151.5306884728097
-16.30573332177944        37.16755821173639        0                        -1964.3298592361693
-18.077626431017713       37.364849100072576       0                        -1856.823496756523
-13.685619606193503       37.58578373416498        0                        -1949.0674423811288
-13.963947540840325       35.96849324557182        0                        4.244308608273665E-12
-10.19523734004611        38.67851530599653        0                        -1706.5273955884325
-8.445018749148105        39.09752172104578        0                        -1790.149675734207
-8.986926958102377        37.50016713133213        0                        4.244308608273665E-12
-11.95016807086156        38.173181922615335       0                        -1951.9559862433264
-10.65879725400885        37.025483710866474       0                        6.366462912410498E-12
-12.28757793609063        36.471237843081454       0                        0
-15.735944938858538       38.746991188483285       5.551115123125783E-17    -1324.2459263739568
-6.706417992210601        39.43270540350991        0                        -1155.6695717490713
-7.33082345163881         37.89693125930164        0                        8.48861721654733E-12
-7.649907228858746        40.41092216107653        0                        -1013.3165725754125
-13.31793909199093        39.060837536158566       0                        -1506.5241247754268
-9.735959426489803        40.0030909231979         0                        -1137.6393076640575
-11.579233734032613       39.59797242665551        0                        -1173.4909350217933
-4.987234445295781        39.68685395538597        0                        -1176.1905079741616
-5.812037781713766        38.19276478161205        0                        5.153803310046594E-12
-3.299186265185391        39.86301860149163        0                        -685.4759441052917
-1.6411672241825979       39.96605403181815        0                        316.36363438815573
-2.481868696131002        38.520370883139464       0                        -6.496390726949487E-14
-4.220275027717805        38.41945001228864        0                        -2.804275330466529E-12
-6.017022000369536        40.689864934244895       1.1102230246251565E-16   -357.292256774638
0                         40                       0                        11299.645024700863
-1.0308486649569488       38.8461892489574         0                        2.1827872842550277E-12
-4.577289052567775        41.30129535572898        1.1102230246251565E-16   32.479940369626945
-0.7734795320241649       40.95910874179096        2.7755575615628914E-17   2419.29680035852
-0.883263063133597        41.10798497136427        0                        1815.7545818516187
-0.6696007245250437       41.05309915259526        0                        3402.8185116539353
-2.445234681489212        41.4791567463556         0                        733.6720003904117
-30.698958850968346       -21.038688361485438      0                        -4.547473508864641E-13
-29.17884988346627        -20.86859066648805       0                        3.941143707682689E-12
-29.721968222722698       -22.28562923181377       0                        2.2737367544323206E-12
-28.155012146621857       -22.01454428477324       0                        -3.031649005909761E-12
-28.730676115898365       -23.504479275794885      0                        5.760133111228545E-12
-32.370805798190204       -18.37033407471776       0                        -6.195932655828074E-12
-31.57366163388975        -19.719553431620724      0                        -1.7053025658242404E-13
-30.06101299408992        -19.613441691439494      0                        7.275957614183426E-12
-27.7549671126122         -24.595847593384708      0                        3.031649005909761E-12
-27.1807034784928         -23.01022933659245       0                        3.637978807091713E-12
-26.68450621403016        -21.40238027650432       0                        -5.716823839715549E-12
-27.790164364893364       -20.614281472600837      0                        5.305385760342081E-12
-26.201649387305956       -24.308148998059828      0                        -5.002220859751105E-12
-31.619480296499873       -17.044736126042928      0                        4.016934932830433E-12
-33.14715877400698        -17.01466217040494       0                        2.7284841053187847E-12
-24.264358932552476       -28.208838672569588      0                        -1.8189894035458565E-12
-26.626725885111785       -25.928824761182682      0                        -3.789561257387201E-12
-22.516404117708067       -26.230887084701152      0                        9.701276818911234E-12
-21.34969520406408        -27.204407536538998      0                        4.850638409455617E-12
-22.782360514816965       -27.704518681843464      0                        2.7284841053187847E-12
-23.00277223094198        -29.26473844923478       0                        9.094947017729282E-13
-21.693253150799517       -30.220002318307053      0                        6.366462912410498E-12
-20.2757631515979         -31.058190669882126      0                        -7.882287415365378E-12
-18.844860457672613       -30.320696051993764      0                        1.5764574830730755E-11
-18.81404600082079        -31.953512531581268      0                        1.0307606620093187E-11
-21.54046157353913        -28.709051480841932      0                        -4.244308608273665E-12
-20.232264028556415       -29.540614511386874      0                        -2.4253192047278085E-12
-20.1474211449126         -28.10802290390125       0                        4.850638409455617E-12
-33.732069271060205       -23.71860653719201       -1.1102230246251565E-16  -3621.048394802141
-26.43286574498995        -31.714398659688165      -1.6653345369377348E-16  -3081.0999742479594
-26.00656917129801        -32.14484708861586       -1.1102230246251565E-16  -2691.8820509193497
-31.587257158723446       -26.590300059382454      -8.326672684688674E-17   -3534.042313089662
-31.53921736559746        -26.86479809654793       -1.1102230246251565E-16  -3457.224453105677
-31.173855897686327       -27.050558120622664      2.7755575615628914E-17   -3435.804412168066
-24.029801663459143       -34.021201715180126      1.1102230246251565E-16   -2600.2842200438577
-22.996828786564123       -34.68112189955766       0                        -2245.0686848711753
-21.091037197175353       -35.98620632574334       5.551115123125783E-17    -2064.3706900720535
-27.950997658767683       -30.79776734525674       0                        -2871.787106380422
-27.47100831144637        -31.451731111587694      2.7755575615628914E-17   -2681.103947116894
-29.39185599317971        -29.260684439918485      0                        -2858.854020000428
-28.65979369344428        -30.48124281635205       8.326672684688674E-17    -2576.0080230469794
-29.44865235252167        -29.97246792535483       2.220446049250313E-16    -2780.0133809554954
-30.670017786662633       -29.801606571915507      5.551115123125783E-17    -2518.6231562812895
-30.972573850192106       -28.999073041357008      -1.3877787807814457E-17  -2740.7866290467364
-30.91045448560194        -28.602725168014032      0                        -3028.330892179658
-30.970841697212638       -28.537632955118024      -1.249000902703301E-16   -2897.048186469494
-25.528850072008364       -32.435200920900186      -5.551115123125783E-17   -2590.765256748728
-26.476315510518248       -32.35181939650657       -5.551115123125783E-17   -2642.9741010665957
-25.830881224196123       -32.764829413200204      5.551115123125783E-17    -2547.370050814115
-25.25208283284703        -34.06920129410297       1.1102230246251565E-16   -2110.912129241734
-26.451933303819814       -33.42367992093324       0                        -2167.3155211051503
-23.896021521800506       -35.482544852544486      0                        -1914.734494658648
-25.035767681600785       -35.510263032085554      -2.220446049250313E-16   -1777.1247505208628
-24.996124937142415       -35.00030399881243       5.551115123125783E-17    -1873.0930815974305
-25.739969834008193       -34.674232473984645      -1.1102230246251565E-16  -1921.242404494406
-32.9448523758353         -14.366277393934878      0                        -1.2126596023639042E-12
-34.44773247027222        -14.18180695876549       0                        4.244308608273665E-12
-33.50776582033052        -12.976900057771326      0                        1.8189894035458565E-12
-35.001640389226          -12.727345746405636      0                        8.791782117138306E-12
-34.03473251424474        -11.574064154125043      0                        -6.063298011819521E-13
-33.83181046800325        -15.612001330124619      0                        1.0610771520684163E-12
-32.313411207482744       -15.725371178749395      0                        -1.2884508275116484E-12
-31.499265973027455       -14.458488115244092      0                        -2.4253192047278085E-12
-28.615599004638252       -19.46267603670772       0                        1.4476124003219107E-11
-30.869895320386807       -18.336189661263383      0                        4.073778351691241E-12
-25.589980669906183       -22.624462846809553      0                        6.496390726949487E-14
-24.71468299499466        -24.118923719297815      0                        -1.0610771520684163E-12
-24.51912826522406        -21.709121238239195      0                        0